41
Lattice="7.65796644025031 0.0 0.0 3.828983220125155 6.6319934785854535 0.0 0.0 0.0 22.252703415323648" Properties=species:S:1:pos:R:3:tags:I:1:forces:R:3 energy=-241520.50398528442 pbc="T T F"
Cu      -0.00000000      -0.00000000       8.00000000        4      -0.00005091      -0.00002057      -0.07745577
Cu       2.55265548      -0.00000000       8.00000000        4      -0.01617507      -0.03750134      -0.08614995
Cu       5.10531096       0.00000000       8.00000000        4       0.01588890      -0.03765535      -0.08494745
Cu       1.27632774       2.21066449       8.00000000        4      -0.04071393       0.00505813      -0.08495490
Cu       3.82898322       2.21066449       8.00000000        4      -0.00000848       0.00003497      -0.03935022
Cu       6.38163870       2.21066449       8.00000000        4       0.04046376       0.00463801      -0.08627414
Cu       2.55265548       4.42132899       8.00000000        4      -0.02438666       0.03264915      -0.08634639
Cu       5.10531096       4.42132899       8.00000000        4       0.02480035       0.03252857      -0.08481632
Cu       7.65796644       4.42132899       8.00000000        4      -0.00005734      -0.00014013      -0.13893007
Cu       1.27632774       0.73688816      10.08423447        3       0.00843476       0.00361394       0.00798533
Cu       3.82898322       0.73688816      10.08423447        3      -0.00073611       0.01216903      -0.05207872
Cu       6.38163870       0.73688816      10.08423447        3      -0.00742098       0.00561863       0.00787143
Cu       2.55265548       2.94755266      10.08423447        3       0.01099944      -0.00549059      -0.05211600
Cu       5.10531096       2.94755266      10.08423447        3      -0.01026127      -0.00683014      -0.05196919
Cu       7.65796644       2.94755266      10.08423447        3      -0.00096776      -0.01172834       0.01562434
Cu       3.82898322       5.15821715      10.08423447        3      -0.00107266      -0.00926009       0.00793005
Cu       6.38163870       5.15821715      10.08423447        3      -0.00975862       0.00647558       0.01570687
Cu       8.93429418       5.15821715      10.08423447        3       0.01048187       0.00509001       0.01561765
Cu      -0.00000668       1.47471159      12.17083636        2       0.00023114       0.00575567       0.02273524
Cu       2.55649421       1.47598672      12.17261023        2       0.04264380       0.02465122       0.07479211
Cu       5.10147880       1.47599782      12.17261150        2      -0.04254044       0.02469287       0.07471317
Cu       1.27722848       3.68398392      12.16999507        2       0.00851061      -0.00437756       0.02233389
Cu       3.82897295       3.68001667      12.17260200        2      -0.00001697      -0.04916206       0.07465892
Cu       6.38079784       3.68388612      12.16999698        2      -0.00800076      -0.00532784       0.02246630
Cu       2.55185321       5.89463411      12.17083747        2      -0.00505453      -0.00266521       0.02275632
Cu       5.10611562       5.89463746      12.17083538        2       0.00472106      -0.00329204       0.02269847
Cu       7.65790216       5.89610924      12.16999406        2      -0.00068880       0.00943004       0.02233055
Cu       0.00000276       0.00000183      14.25622285        1       0.00008125       0.00004294       0.05634315
Cu       2.54857462      -0.00750349      14.25541194        1      -0.05138992      -0.09721830       0.04878823
Cu       5.10927831      -0.00735459      14.25571830        1       0.04939835      -0.09451812       0.05451973
Cu       1.26797159       2.21089923      14.25572841        1      -0.10665862       0.00429991       0.05477478
Cu       3.82898898       2.21067224      14.26553146        1       0.00007713      -0.00033399       0.32431767
Cu       6.39017612       2.21088013      14.25541995        1       0.10971900       0.00400604       0.04894712
Cu       2.54819738       4.42861235      14.25542111        1      -0.05837767       0.09290733       0.04899366
Cu       5.10969405       4.42843855      14.25572938        1       0.05704712       0.08989862       0.05469199
Cu       7.65795827       4.42132909      14.25694765        1      -0.00025531      -0.00009539       0.06770717
O        3.82906479       2.21130542      16.16487378        0       0.00164731       0.01136273       0.25108108
C        3.82927014       2.21096212      17.57100573        0      -0.00147813      -0.00814140       0.26821337
H        4.81409496       2.00405960      18.00652401        0       0.27956427      -0.05287037      -0.26023061
H        3.51415600       3.16574315      18.00921841        0      -0.08557223       0.26715922      -0.27105135
H        3.15893577       1.45970548      18.00476804        0      -0.19306696      -0.21545433      -0.25192749
