41
Lattice="7.65796644025031 0.0 0.0 3.828983220125155 6.6319934785854535 0.0 0.0 0.0 22.252703415323648" Properties=species:S:1:pos:R:3:tags:I:1:forces:R:3 energy=-241520.609375 pbc="T T F"
Cu      -0.00000000      -0.00000000       8.00000000        4       0.00000571       0.00006364      -0.09957631
Cu       2.55265548      -0.00000000       8.00000000        4      -0.01163785      -0.03063507      -0.10027660
Cu       5.10531096       0.00000000       8.00000000        4       0.01164437      -0.03069141      -0.10012466
Cu       1.27632774       2.21066449       8.00000000        4      -0.03243241       0.00522717      -0.09994590
Cu       3.82898322       2.21066449       8.00000000        4      -0.00000844      -0.00005604      -0.05606854
Cu       6.38163870       2.21066449       8.00000000        4       0.03239523       0.00521725      -0.10006925
Cu       2.55265548       4.42132899       8.00000000        4      -0.02078082       0.02542839      -0.10008522
Cu       5.10531096       4.42132899       8.00000000        4       0.02081633       0.02546823      -0.09990300
Cu       7.65796644       4.42132899       8.00000000        4       0.00000322       0.00003204      -0.14461732
Cu       1.27632774       0.73688816      10.08423447        3       0.02233255       0.01271558       0.11140519
Cu       3.82898322       0.73688816      10.08423447        3       0.00060235       0.02587667       0.07346813
Cu       6.38163870       0.73688816      10.08423447        3      -0.02229809       0.01279899       0.11141484
Cu       2.55265548       2.94755266      10.08423447        3       0.02221006      -0.01335559       0.07347742
Cu       5.10531096       2.94755266      10.08423447        3      -0.02279199      -0.01236529       0.07347364
Cu       7.65796644       2.94755266      10.08423447        3       0.00010699      -0.00869506       0.10735883
Cu       3.82898322       5.15821715      10.08423447        3      -0.00007697      -0.02580850       0.11140639
Cu       6.38163870       5.15821715      10.08423447        3      -0.00769625       0.00431344       0.10747606
Cu       8.93429418       5.15821715      10.08423447        3       0.00761608       0.00450430       0.10750112
Cu       0.00029431       1.47571355      12.19301955        2      -0.00027518      -0.00101438       0.00382195
Cu       2.55842910       1.47691479      12.21065586        2       0.01694506       0.00980518      -0.00050306
Cu       5.09969322       1.47718787      12.21066819        2      -0.01700420       0.00969973      -0.00054590
Cu       1.27773913       3.68321278      12.19542316        2       0.00099883      -0.00018613       0.00433390
Cu       3.82882694       3.67785439      12.21074161        2       0.00004036      -0.01960142      -0.00070296
Cu       6.37987022       3.68383036      12.19542911        2      -0.00066047      -0.00076552       0.00434416
Cu       2.55083188       5.89437066      12.19302699        2       0.00107230       0.00014447       0.00385550
Cu       5.10683551       5.89385362      12.19302183        2      -0.00083630       0.00057735       0.00384172
Cu       7.65832154       5.89693474      12.19537825        2      -0.00032444       0.00090521       0.00430031
Cu      -0.00000883      -0.00003656      14.30127049        1      -0.00002326      -0.00014914       0.00862147
Cu       2.54146010      -0.02243488      14.31049664        1      -0.00170120       0.00302800      -0.00180854
Cu       5.11582798      -0.02166855      14.31320439        1       0.00210533       0.00258382      -0.00270039
Cu       1.25243505       2.21233507      14.31320370        1       0.00134947      -0.00337559      -0.00263287
Cu       3.82892063       2.21005377      14.32102861        1      -0.00006973      -0.00044737       0.00563356
Cu       6.40646934       2.21213162      14.31052968        1      -0.00191817      -0.00319885      -0.00171102
Cu       2.53901451       4.44197268      14.31059852        1       0.00351467      -0.00025780      -0.00161651
Cu       5.11861691       4.44101318      14.31328568        1      -0.00341025       0.00031751      -0.00252286
Cu       7.65796656       4.42129227      14.31133468        1      -0.00001591      -0.00015950       0.00271800
O        3.82937463       2.21409242      16.18180589        0       0.00020867       0.00262376      -0.01177037
C        3.82910304       2.21035784      17.58143975        0       0.00017165       0.00106120      -0.01637622
H        4.83466329       1.99958110      17.97256173        0       0.00843233      -0.00295057       0.00832077
H        3.50819526       3.18542323      17.97501836        0      -0.00271954       0.00807166       0.00898469
H        3.14431964       1.44370726      17.97107713        0      -0.00589007      -0.00675036       0.00779990
