41
Lattice="7.65796644025031 0.0 0.0 3.828983220125155 6.6319934785854535 0.0 0.0 0.0 22.252703415323648" Properties=species:S:1:pos:R:3:tags:I:1:forces:R:3 energy=-241520.609375 pbc="T T F"
Cu      -0.00000000      -0.00000000       8.00000000        4       0.00000573       0.00006322      -0.09914181
Cu       2.55265548      -0.00000000       8.00000000        4      -0.01179369      -0.03084615      -0.09996347
Cu       5.10531096       0.00000000       8.00000000        4       0.01180066      -0.03090293      -0.09980836
Cu       1.27632774       2.21066449       8.00000000        4      -0.03269244       0.00519742      -0.09963663
Cu       3.82898322       2.21066449       8.00000000        4      -0.00000838      -0.00005398      -0.05609546
Cu       6.38163870       2.21066449       8.00000000        4       0.03265408       0.00518772      -0.09976451
Cu       2.55265548       4.42132899       8.00000000        4      -0.02088382       0.02566657      -0.09977923
Cu       5.10531096       4.42132899       8.00000000        4       0.02091962       0.02570718      -0.09959529
Cu       7.65796644       4.42132899       8.00000000        4       0.00000302       0.00003173      -0.14407654
Cu       1.27632774       0.73688816      10.08423447        3       0.02383886       0.01358741       0.10958416
Cu       3.82898322       0.73688816      10.08423447        3       0.00060395       0.02728923       0.07429024
Cu       6.38163870       0.73688816      10.08423447        3      -0.02379960       0.01367957       0.10959718
Cu       2.55265548       2.94755266      10.08423447        3       0.02343160      -0.01406241       0.07429971
Cu       5.10531096       2.94755266      10.08423447        3      -0.02401407      -0.01307191       0.07429866
Cu       7.65796644       2.94755266      10.08423447        3       0.00009838      -0.00860732       0.10365264
Cu       3.82898322       5.15821715      10.08423447        3      -0.00008078      -0.02754292       0.10959501
Cu       6.38163870       5.15821715      10.08423447        3      -0.00761087       0.00427255       0.10376404
Cu       8.93429418       5.15821715      10.08423447        3       0.00753799       0.00444925       0.10378788
Cu       0.00029431       1.47571355      12.19301955        2      -0.00031577      -0.00055586       0.00643546
Cu       2.55842910       1.47691479      12.21065586        2       0.01576498       0.00913841      -0.00845941
Cu       5.09969322       1.47718787      12.21066819        2      -0.01583020       0.00901817      -0.00851075
Cu       1.27773913       3.68321278      12.19542316        2       0.00140569      -0.00035364       0.00572830
Cu       3.82882694       3.67785439      12.21074161        2       0.00004999      -0.01825698      -0.00865979
Cu       6.37987022       3.68383036      12.19542911        2      -0.00101454      -0.00102158       0.00573360
Cu       2.55083188       5.89437066      12.19302699        2       0.00070461      -0.00011475       0.00646921
Cu       5.10683551       5.89385362      12.19302183        2      -0.00043158       0.00037790       0.00645758
Cu       7.65832154       5.89693474      12.19537825        2      -0.00037538       0.00134723       0.00569901
Cu      -0.00000883      -0.00003656      14.30127049        1      -0.00002379      -0.00013813       0.00866906
Cu       2.54146010      -0.02243488      14.31049664        1      -0.00173027       0.00424038       0.00078315
Cu       5.11582798      -0.02166855      14.31320439        1       0.00213336       0.00383231      -0.00006192
Cu       1.25243505       2.21233507      14.31320370        1       0.00244329      -0.00400047       0.00000379
Cu       3.82892063       2.21005377      14.32102861        1      -0.00005980      -0.00034608       0.03341820
Cu       6.40646934       2.21213162      14.31052968        1      -0.00298630      -0.00380850       0.00088833
Cu       2.53901451       4.44197268      14.31059852        1       0.00459913      -0.00088143       0.00098539
Cu       5.11861691       4.44101318      14.31328568        1      -0.00451987      -0.00032693       0.00012207
Cu       7.65796656       4.42129227      14.31133468        1      -0.00001558      -0.00014973       0.00312933
O        3.82937463       2.21409242      16.18180589        0       0.00020055       0.00244695      -0.01856845
C        3.82910304       2.21035784      17.58143975        0       0.00043942       0.00368209      -0.08225957
H        4.83466329       1.99958110      17.97256173        0       0.02803534      -0.00697005       0.02566092
H        3.50819526       3.18542323      17.97501836        0      -0.00837811       0.02542497       0.02576535
H        3.14431964       1.44370726      17.97107713        0      -0.02010543      -0.02262855       0.02556291
